LAMMPS Description

       20903  atoms
       
           3  atom types

  -116.506265        116.506265     xlo xhi
  -116.141765        116.141765     ylo yhi
   -20.00000000       20.000000     zlo zhi

Masses

 1 12.00
 2 15.9994
 3 1.008

Atoms

1 1   	0.00260323 -0.74375 3.64575 0.721297
2 1   	-0.0235195 0.012056 2.42141 0.945221
3 1   	0.0107474 1.41269 2.3577 0.863129
4 1   	-0.00141612 2.12075 3.64201 0.71262
5 1   	-0.000337429 -0.788392 6.12787 0.714484
6 1   	3.36047e-05 -0.0196684 4.9106 0.711871
7 1   	0.000922414 1.41153 4.87513 0.784326
8 1   	-0.000428366 2.11983 6.13596 0.863052
9 1   	3.1014e-05 -0.75696 8.63689 0.713336
10 1   	-0.00035026 -0.0527646 7.3621 0.735007
11 1   	-0.00038452 1.36679 7.37222 0.82154
12 1   	6.86062e-05 2.0957 8.6408 0.79771
13 1   	-5.46288e-05 -0.749162 11.1745 0.740896
14 1   	0.000268768 -0.0622856 9.88728 0.725818
15 1   	0.000233791 1.38448 9.90194 0.763655
16 1   	-8.31805e-05 2.06569 11.1613 0.790003
17 1   	-9.49708e-06 -0.762324 13.6858 0.879909
18 1   	-2.75675e-05 -0.0481935 12.4422 0.759
19 1   	-1.013e-05 1.39554 12.418 0.839834
20 1   	-1.50445e-05 2.10262 13.6795 1.02694
21 1   	8.41268e-06 -0.789206 16.2072 1.02896
22 1   	-1.97168e-06 -0.0699105 14.9345 1.05279
23 1   	-1.63495e-06 1.35836 14.922 1.15608
24 1   	8.31701e-06 2.11546 16.1476 1.28046
25 1   	-6.96155e-07 -0.763643 18.6702 1.12606
26 1   	4.46045e-06 -0.0204891 17.4331 1.06544
27 1   	4.78077e-06 1.39619 17.3957 1.21395
28 1   	-7.35858e-07 2.17528 18.6268 1.26806
29 1   	6.21169e-07 -0.741608 21.1612 1.1573
30 1   	-1.12711e-06 -0.0499798 19.9321 1.19262
31 1   	-1.06132e-06 1.42758 19.86 1.18581
32 1   	5.64912e-07 2.10901 21.0965 1.19997
33 1   	1.01299e-06 -0.738674 23.6407 1.38784
34 1   	1.05954e-06 -0.00390229 22.4169 1.19728
35 1   	1.02773e-06 1.42667 22.3693 1.2261
36 1   	9.99575e-07 2.1174 23.6257 1.30133
37 1   	6.104e-07 -0.756757 26.1264 1.32897
38 1   	7.18707e-07 -0.0410444 24.8885 1.32347
39 1   	7.68433e-07 1.42019 24.9143 1.2097
40 1   	6.0209e-07 2.11812 26.1635 1.21999
41 1   	7.19754e-07 -0.731038 28.6581 1.64878
42 1   	6.76499e-07 -0.0665246 27.423 1.32938
43 1   	7.15251e-07 1.35795 27.3964 1.24068
44 1   	7.17402e-07 2.09486 28.6324 1.47621
45 1   	7.25054e-07 -0.764738 31.1021 1.97066
46 1   	7.40111e-07 0.0225302 29.9179 1.84899
47 1   	7.30345e-07 1.43631 29.9139 1.66993
48 1   	7.03708e-07 2.13979 31.1209 1.91323
49 1   	7.0885e-07 -0.763751 33.5987 2.13342
50 1   	7.0023e-07 -0.0307449 32.3685 2.07144
51 1   	7.51718e-07 1.4075 32.337 2.1709
52 1   	6.92229e-07 2.12281 33.5918 2.15767
53 1   	7.2276e-07 -0.792944 36.0248 2.53796
54 1   	7.16624e-07 -0.0547871 34.8307 2.21556
55 1   	7.07345e-07 1.41842 34.8367 2.21403
56 1   	7.22275e-07 2.12658 36.0696 2.17278
57 1   	7.28365e-07 -0.746073 38.5067 2.7622
58 1   	7.12864e-07 -0.0625116 37.26 2.60959
59 1   	7.20123e-07 1.38133 37.2854 2.37892
60 1   	7.1046e-07 2.12309 38.4948 2.5307
61 1   	7.15623e-07 -0.762592 40.9881 3.07457
62 1   	7.10676e-07 -0.0205621 39.7735 2.89202
63 1   	7.13303e-07 1.38399 39.7243 2.80251
64 1   	7.36284e-07 2.12208 40.9892 2.83865
65 1   	7.22884e-07 -0.758895 43.4696 3.44912
66 1   	7.27957e-07 -0.0418019 42.2284 3.29374
67 1   	7.03218e-07 1.38191 42.1969 3.14109
68 1   	7.15254e-07 2.08552 43.4508 3.31641
69 1   	7.2014e-07 -0.766816 45.9791 3.82383
70 1   	7.16347e-07 -0.0664953 44.7313 3.67313
71 1   	7.23256e-07 1.36637 44.6887 3.64699
72 1   	7.12289e-07 2.08454 45.9165 3.86167
73 1   	7.22195e-07 -0.798953 48.444 4.28865
74 1   	7.05979e-07 -0.0701379 47.2199 4.1112
75 1   	7.4328e-07 1.35878 47.1465 4.18626
76 1   	7.12898e-07 2.08839 48.3759 4.3513
77 1   	7.23449e-07 -0.79176 50.8778 4.61109
78 1   	7.09299e-07 -0.0341964 49.6647 4.44953
79 1   	7.27319e-07 1.40454 49.6289 4.55198
80 1   	7.20923e-07 2.1147 50.8657 4.68186
81 1   	7.22937e-07 -0.820386 53.3681 4.77147
82 1   	7.12146e-07 -0.0789901 52.1391 4.75121
83 1   	7.21192e-07 1.35783 52.1053 4.78181
84 1   	7.10357e-07 2.08922 53.3461 4.86864
85 1   	7.62005e-07 -0.815096 55.847 4.91404
86 1   	7.10691e-07 -0.0499182 54.6131 4.81241
87 1   	7.31825e-07 1.35766 54.6106 4.82514
88 1   	7.12589e-07 2.09059 55.8479 5.05931
89 1   	7.21973e-07 -0.764239 58.358 5.31486
90 1   	6.99287e-07 -0.107586 57.0724 5.1616
91 1   	7.23641e-07 1.34777 57.0665 5.15661
92 1   	7.1658e-07 2.10833 58.2985 5.24818
93 1   	7.29265e-07 -0.82978 60.7711 5.40693
94 1   	7.17544e-07 -0.0217697 59.5916 5.33614
95 1   	7.11162e-07 1.43817 59.55 5.3522
96 1   	7.2018e-07 2.09213 60.8159 5.52806
97 1   	7.13476e-07 -0.782257 63.2924 5.47074
98 1   	7.06569e-07 -0.0937945 62.0249 5.49542
99 1   	7.47867e-07 1.34398 62.0677 5.62082
100 1   	7.03301e-07 2.05508 63.3114 5.5717
101 1   	7.23547e-07 -0.814565 65.8023 5.61046
102 1   	7.15327e-07 -0.0893721 64.558 5.56569
103 1   	7.2111e-07 1.36106 64.5629 5.51603
104 1   	7.22658e-07 2.09608 65.8151 5.48343
105 1   	7.13936e-07 -0.765527 68.2869 5.40587
106 1   	7.2232e-07 -0.045364 67.0521 5.56033
107 1   	7.0876e-07 1.38219 67.0478 5.46866
108 1   	6.93458e-07 2.10094 68.3058 5.34434
109 1   	7.15014e-07 -0.812815 70.7649 5.42267
110 1   	7.27223e-07 -0.0708633 69.5297 5.32982
111 1   	7.37933e-07 1.38522 69.55 5.28689
112 1   	7.16481e-07 2.09608 70.8128 5.32531
113 1   	7.43467e-07 -0.795446 73.2575 5.76326
114 1   	7.00961e-07 -0.103274 72.0279 5.52852
115 1   	7.16693e-07 1.35014 72.0355 5.49214
116 1   	7.16422e-07 2.08403 73.2673 5.50589
117 1   	7.63675e-07 -0.780535 75.7868 5.79812
118 1   	7.25727e-07 -0.0583651 74.5301 5.76558
119 1   	7.08565e-07 1.36975 74.5286 5.60185
120 1   	7.24194e-07 2.12602 75.7658 5.54083
121 1   	7.33436e-07 -0.752034 78.2831 5.53171
122 1   	6.91497e-07 -0.0489503 77.017 5.60791
123 1   	7.10318e-07 1.37132 76.993 5.49518
124 1   	7.26293e-07 2.143 78.2385 5.4883
125 1   	7.11638e-07 -0.672346 80.7721 5.16667
126 1   	7.21399e-07 0.01277 79.5143 5.39738
127 1   	7.16042e-07 1.4451 79.4904 5.41142
128 1   	7.17408e-07 2.18448 80.717 5.20034
129 1   	7.4439e-07 -0.676921 83.2518 5.07412
130 1   	7.06569e-07 0.0400846 82.0087 5.10845
131 1   	7.26598e-07 1.50717 81.9747 5.13236
132 1   	7.02744e-07 2.17027 83.2485 5.01541
133 1   	7.29336e-07 -0.693481 85.7207 4.75526
134 1   	6.95703e-07 0.0539047 84.4811 4.90474
135 1   	7.47452e-07 1.47742 84.5005 4.80164
136 1   	7.11346e-07 2.24844 85.7437 4.84299
137 1   	7.32777e-07 -0.664303 88.2053 4.67532
138 1   	7.16866e-07 0.0589905 86.9546 4.70325
139 1   	7.17503e-07 1.5071 86.9937 4.77707
140 1   	7.29008e-07 2.21201 88.2267 4.74773
141 1   	7.20947e-07 -0.65343 90.7112 4.34399
142 1   	7.06504e-07 0.0428329 89.4757 4.47641
143 1   	7.26002e-07 1.47266 89.4736 4.59094
144 1   	7.13582e-07 2.19444 90.7193 4.44821
145 1   	7.32403e-07 -0.6352 93.2064 4.08246
146 1   	7.18195e-07 0.0635773 91.9814 4.28984
147 1   	7.16623e-07 1.496 91.9498 4.3009
148 1   	7.22601e-07 2.19837 93.2316 4.09526
149 1   	7.16422e-07 -0.670434 95.6249 3.41871
150 1   	7.24461e-07 0.0583513 94.4542 3.83556
151 1   	7.12195e-07 1.5065 94.4555 3.82232
152 1   	7.2012e-07 2.2619 95.6632 3.58254
153 1   	7.38067e-07 -0.598568 98.0212 2.85175
154 1   	7.08639e-07 0.0894145 96.8477 3.18585
155 1   	7.21476e-07 1.54289 96.8732 3.29913
156 1   	7.16167e-07 2.25333 98.0993 3.06379
157 1   	7.15031e-07 -0.667004 100.485 2.32903
158 1   	7.14194e-07 0.062697 99.2942 2.65176
159 1   	7.27473e-07 1.51646 99.326 2.77641
160 1   	7.18384e-07 2.20597 100.561 2.53088
161 1   	7.14261e-07 -0.721054 102.979 1.9029
162 1   	7.15437e-07 -0.0113127 101.744 2.15591
163 1   	7.24812e-07 1.44177 101.767 2.31184
164 1   	7.22409e-07 2.14613 102.995 1.98556
165 1   	7.5085e-07 -0.73019 105.42 1.46932
166 1   	7.08233e-07 -0.00351289 104.198 1.72086
167 1   	7.25195e-07 1.46021 104.24 1.75973
168 1   	7.19336e-07 2.23779 105.447 1.68327
169 1   	7.27064e-07 -0.707706 107.899 1.29261
170 1   	7.0697e-07 0.0334871 106.65 1.43441
171 1   	7.13707e-07 1.46344 106.655 1.52696
172 1   	7.30563e-07 2.21895 107.882 1.40662
173 1   	7.10438e-07 -0.61919 110.383 1.00116
174 1   	7.21572e-07 0.0482633 109.141 1.21577
175 1   	7.14592e-07 1.49454 109.118 1.19206
176 1   	7.24131e-07 2.19327 110.353 0.978751
177 1   	7.20583e-07 -0.655876 112.84 0.620493
178 1   	7.1735e-07 0.0879291 111.608 0.757673
179 1   	7.23321e-07 1.53279 111.634 0.780645
180 1   	7.08577e-07 2.23885 112.854 0.512665
181 1   	7.23463e-07 -0.648373 115.278 0.158896
182 1   	7.1671e-07 0.0652617 114.056 0.314324
183 1   	7.22727e-07 1.51968 114.051 0.253378
184 1   	7.22805e-07 2.20279 115.311 0.00404252
185 1   	7.15645e-07 -0.70301 117.769 -0.209169
186 1   	7.16463e-07 0.0465881 116.538 -0.0481418
187 1   	7.15984e-07 1.46186 116.554 -0.212158
188 1   	7.2687e-07 2.17809 117.775 -0.488008
189 1   	7.27075e-07 -0.737215 -115.525 -0.546975
190 1   	7.13554e-07 0.00548532 -116.754 -0.412695
191 1   	7.13462e-07 1.43115 -116.763 -0.461257
192 1   	7.25393e-07 2.14874 -115.491 -0.655923
193 1   	7.12021e-07 -0.777203 -113.012 -0.7752
194 1   	7.23039e-07 -0.0436313 -114.26 -0.70859
195 1   	7.11219e-07 1.39538 -114.265 -0.800915
196 1   	7.16962e-07 2.08524 -113.033 -0.969209
197 1   	7.28594e-07 -0.750449 -110.545 -0.91911
198 1   	7.001e-07 -0.0305477 -111.795 -0.912249
199 1   	7.34939e-07 1.40092 -111.792 -1.06842
200 1   	7.12099e-07 2.18042 -110.547 -1.0934
201 1   	7.18215e-07 -0.756388 -108.09 -1.2415
202 1   	7.25524e-07 -0.0354346 -109.313 -1.0684
203 1   	7.12134e-07 1.43534 -109.313 -1.14445
204 1   	7.47174e-07 2.12442 -108.048 -1.19841
205 1   	7.26666e-07 -0.718904 -105.637 -1.7606
206 1   	7.08075e-07 -0.0369043 -106.876 -1.50762
207 1   	7.10331e-07 1.41535 -106.824 -1.44576
208 1   	7.20185e-07 2.19859 -105.603 -1.54831
209 1   	7.27007e-07 -0.679591 -103.217 -2.19241
210 1   	7.01427e-07 0.0567654 -104.42 -1.8252
211 1   	7.31896e-07 1.47641 -104.375 -1.64704
212 1   	7.13371e-07 2.14935 -103.099 -1.8104
213 1   	7.28014e-07 -0.751034 -100.672 -2.41753
214 1   	7.05848e-07 -0.0445086 -101.947 -2.19712
215 1   	7.27391e-07 1.38047 -101.885 -2.00537
216 1   	7.1416e-07 2.11963 -100.654 -2.13756
217 1   	7.18747e-07 -0.743171 -98.2078 -2.60071
218 1   	7.25795e-07 -0.0271679 -99.4226 -2.36622
219 1   	7.21546e-07 1.42962 -99.4115 -2.26273
220 1   	7.3761e-07 2.15308 -98.1428 -2.30091
221 1   	7.22898e-07 -0.677373 -95.7598 -2.94661
222 1   	7.14217e-07 0.0272688 -96.9918 -2.72922
223 1   	7.13346e-07 1.4611 -96.9148 -2.5871
224 1   	7.11024e-07 2.16918 -95.6593 -2.75975
225 1   	7.397e-07 -0.726543 -93.2865 -3.44326
226 1   	7.12615e-07 0.0229733 -94.4845 -3.14029
227 1   	7.18382e-07 1.4432 -94.4212 -2.99602
228 1   	7.13693e-07 2.13784 -93.189 -3.25186
229 1   	7.2184e-07 -0.747497 -90.7517 -3.59275
230 1   	7.10087e-07 -0.0285493 -92.0165 -3.4583
231 1   	7.14003e-07 1.40192 -91.9704 -3.40956
232 1   	7.10339e-07 2.13015 -90.7226 -3.58114
233 1   	7.12988e-07 -0.736876 -88.2359 -3.83526
234 1   	7.2701e-07 -0.0396288 -89.5053 -3.77491
235 1   	7.16125e-07 1.40779 -89.4869 -3.7847
236 1   	7.58466e-07 2.10504 -88.2279 -3.94371
237 1   	7.09639e-07 -0.719112 -85.7136 -3.86937
238 1   	7.22873e-07 -0.0340581 -86.9945 -3.83276
239 1   	7.11793e-07 1.4219 -86.9604 -3.92233
240 1   	7.10352e-07 2.18415 -85.7365 -3.8915
241 1   	7.23474e-07 -0.727062 -83.2651 -3.96424
242 1   	7.1868e-07 0.0234773 -84.4978 -3.93249
243 1   	7.23714e-07 1.48568 -84.4861 -3.94205
244 1   	7.17214e-07 2.18358 -83.2305 -3.96485
245 1   	7.09168e-07 -0.67959 -80.786 -3.76855
246 1   	7.17201e-07 0.013556 -82.0412 -3.90124
247 1   	7.20765e-07 1.46734 -81.98 -3.84434
248 1   	7.13571e-07 2.18576 -80.7486 -3.86398
249 1   	7.04959e-07 -0.671854 -78.2965 -3.61648
250 1   	7.31698e-07 0.0410149 -79.5166 -3.83044
251 1   	7.19463e-07 1.48178 -79.4748 -3.83671
252 1   	7.19788e-07 2.19895 -78.2382 -3.72653
253 1   	7.36341e-07 -0.673623 -75.7911 -3.33537
254 1   	7.13762e-07 0.0437719 -77.0509 -3.50816
255 1   	7.08448e-07 1.48013 -77.0045 -3.5409
256 1   	7.33235e-07 2.22345 -75.7665 -3.40552
257 1   	7.39559e-07 -0.739769 -73.3123 -3.31966
258 1   	7.26953e-07 0.0218174 -74.5306 -3.26009
259 1   	6.99152e-07 1.47046 -74.558 -3.28026
260 1   	7.74279e-07 2.20994 -73.3063 -3.22272
261 1   	7.17795e-07 -0.664176 -70.8301 -3.73973
262 1   	7.09001e-07 0.0307983 -72.072 -3.45946
263 1   	6.9535e-07 1.45004 -72.0922 -3.38405
264 1   	7.03259e-07 2.19836 -70.8401 -3.50666
265 1   	7.24556e-07 -0.690981 -68.3512 -4.03223
266 1   	7.09709e-07 0.0288268 -69.5859 -3.82675
267 1   	7.20923e-07 1.46577 -69.6229 -3.63416
268 1   	7.25738e-07 2.15348 -68.3464 -3.71098
269 1   	7.11381e-07 -0.656111 -65.8324 -4.14632
270 1   	7.20503e-07 0.0527352 -67.0997 -4.02373
271 1   	7.16489e-07 1.46944 -67.091 -3.91543
272 1   	7.23383e-07 2.20361 -65.8225 -4.03338
273 1   	7.19445e-07 -0.725762 -63.3369 -4.23835
274 1   	7.19403e-07 0.042421 -64.5694 -4.18683
275 1   	7.25739e-07 1.4789 -64.5819 -4.16436
276 1   	7.11068e-07 2.18326 -63.3289 -4.10467
277 1   	7.65191e-07 -0.739523 -60.8541 -4.44158
278 1   	7.02386e-07 -0.0139969 -62.0795 -4.25756
279 1   	7.29845e-07 1.43968 -62.0924 -4.19257
280 1   	7.15599e-07 2.15939 -60.8459 -4.11329
281 1   	7.2327e-07 -0.717848 -58.3305 -4.40932
282 1   	6.96599e-07 -0.0288053 -59.6104 -4.29462
283 1   	7.29681e-07 1.40658 -59.5844 -4.15866
284 1   	7.17965e-07 2.11781 -58.353 -4.20838
285 1   	7.18221e-07 -0.723922 -55.793 -4.46127
286 1   	7.1835e-07 -0.00894628 -57.0603 -4.41483
287 1   	7.26966e-07 1.42286 -57.1088 -4.41924
288 1   	7.21921e-07 2.13198 -55.828 -4.43975
289 1   	7.19411e-07 -0.728763 -53.322 -4.62896
290 1   	7.20697e-07 0.011162 -54.5344 -4.54084
291 1   	7.20573e-07 1.46722 -54.589 -4.52106
292 1   	7.16827e-07 2.18333 -53.3249 -4.49841
293 1   	7.09345e-07 -0.714166 -50.8396 -4.61371
294 1   	7.2041e-07 0.0303452 -52.0685 -4.58465
295 1   	7.14704e-07 1.46472 -52.0755 -4.5974
296 1   	7.27866e-07 2.19976 -50.8257 -4.64113
297 1   	7.12932e-07 -0.749978 -48.3308 -4.62066
298 1   	7.15552e-07 -0.0119768 -49.5967 -4.65427
299 1   	7.20482e-07 1.40524 -49.6159 -4.6493
300 1   	7.39948e-07 2.16412 -48.3552 -4.58495
301 1   	7.16291e-07 -0.684741 -45.8307 -4.44467
302 1   	7.1541e-07 -0.0170975 -47.09 -4.52053
303 1   	7.21472e-07 1.43285 -47.0983 -4.49765
304 1   	7.13676e-07 2.14934 -45.8509 -4.42467
305 1   	7.15616e-07 -0.673565 -43.3477 -4.12654
306 1   	7.23256e-07 0.0214338 -44.5989 -4.26946
307 1   	7.16462e-07 1.50047 -44.5949 -4.26297
308 1   	7.1752e-07 2.20763 -43.3632 -4.04986
309 1   	7.13555e-07 -0.64859 -40.8237 -3.92674
310 1   	7.16021e-07 0.0471216 -42.0918 -3.98293
311 1   	7.3718e-07 1.47758 -42.1446 -3.87369
312 1   	7.14523e-07 2.20614 -40.8791 -3.79659
313 1   	7.14115e-07 -0.696828 -38.3407 -3.87477
314 1   	7.14532e-07 0.0380712 -39.5878 -3.90802
315 1   	6.96189e-07 1.48767 -39.6372 -3.77139
316 1   	7.47546e-07 2.19835 -38.3934 -3.54679
317 1   	7.43653e-07 -0.749495 -35.8921 -3.60877
318 1   	7.04029e-07 0.0403058 -37.1233 -3.61969
319 1   	7.4788e-07 1.46427 -37.1674 -3.4933
320 1   	7.3162e-07 2.22184 -35.9025 -3.54211
321 1   	7.24579e-07 -0.641332 -33.3938 -3.77621
322 1   	7.10406e-07 0.0312456 -34.6836 -3.74005
323 1   	6.95933e-07 1.47982 -34.6883 -3.68477
324 1   	7.49391e-07 2.22845 -33.4469 -3.83053
325 1   	7.08565e-07 -0.658764 -30.8969 -3.69823
326 1   	7.1954e-07 0.0622179 -32.1477 -3.6896
327 1   	7.08095e-07 1.51032 -32.2084 -3.72051
328 1   	7.25234e-07 2.24472 -30.9492 -3.65577
329 1   	7.26763e-07 -0.654021 -28.4009 -3.6114
330 1   	7.29399e-07 0.0815351 -29.6442 -3.69365
331 1   	7.21482e-07 1.5126 -29.6938 -3.60834
332 1   	7.26455e-07 2.20547 -28.4185 -3.50275
333 1   	6.91925e-07 -0.667245 -25.9049 -3.4009
334 1   	7.35207e-07 0.0598737 -27.151 -3.45245
335 1   	7.34924e-07 1.49113 -27.1716 -3.58127
336 1   	6.86284e-07 2.17973 -25.89 -3.40397
337 1   	7.13872e-07 -0.76838 -23.4158 -3.24284
338 1   	6.27481e-07 -0.0332433 -24.645 -3.30985
339 1   	6.76003e-07 1.43431 -24.6645 -3.31384
340 1   	7.02589e-07 2.17315 -23.416 -3.30842
341 1   	9.85891e-07 -0.667736 -20.9264 -3.02698
342 1   	8.8156e-07 0.00149526 -22.1683 -3.20372
343 1   	8.52651e-07 1.4436 -22.185 -3.24294
344 1   	9.50817e-07 2.17435 -20.9346 -3.15807
345 1   	-6.98925e-07 -0.645178 -18.3937 -2.92503
346 1   	8.82234e-07 0.0553523 -19.6734 -2.88043
347 1   	7.17914e-07 1.47954 -19.6902 -2.94809
348 1   	-1.60653e-07 2.25383 -18.4574 -2.90953
349 1   	3.13194e-06 -0.656853 -15.922 -2.64916
350 1   	-8.7494e-07 0.0684918 -17.1652 -2.78297
351 1   	-5.79044e-07 1.52127 -17.2054 -2.75998
352 1   	2.33326e-06 2.21752 -15.9814 -2.55808
353 1   	-1.10079e-06 -0.646251 -13.4377 -2.47724
354 1   	7.51263e-06 0.0774997 -14.6864 -2.5958
355 1   	5.67375e-06 1.52473 -14.6994 -2.47188
356 1   	-1.0194e-06 2.22245 -13.4767 -2.17678
357 1   	-2.09277e-05 -0.679269 -10.9725 -1.96926
358 1   	-2.36517e-06 0.0388223 -12.2319 -2.15144
359 1   	-3.68091e-06 1.49268 -12.2539 -2.06614
360 1   	1.67993e-07 2.21641 -11.0166 -1.87784
361 1   	0.000275037 -0.673434 -8.52971 -1.58911
362 1   	-0.000100429 0.041887 -9.77048 -1.75875
363 1   	-5.83449e-05 1.49672 -9.764 -1.73216
364 1   	0.000184783 2.16454 -8.52067 -1.54466
365 1   	-0.00017695 -0.747195 -6.06506 -1.22915
366 1   	0.000119974 -0.00276145 -7.2908 -1.40535
367 1   	9.59798e-05 1.45651 -7.28141 -1.44331
368 1   	-3.41885e-05 2.16102 -6.02361 -1.30244
369 1   	0.000114938 -0.691698 -3.56708 -0.778573
370 1   	-0.000626546 -0.0244161 -4.81232 -1.00918
371 1   	-0.000865455 1.41051 -4.82672 -1.02945
372 1   	0.00131554 2.14241 -3.62258 -0.665824
373 1   	-0.022754 -0.651872 -1.24793 0.191912
374 1   	-0.00167459 0.0157099 -2.35189 -0.457141
375 1   	-0.00097838 1.47479 -2.39476 -0.34271
376 1   	-0.0141042 2.16975 -1.24258 0.179932
377 1   	0.125269 -0.823749 1.2367 1.29587
378 1   	0.0830806 0.0631771 -0.338718 1.05494
379 1   	0.120331 1.62829 -0.184406 1.02786
380 1   	-0.00262904 2.19493 1.14682 0.762245
381 1   	0.00165483 3.55403 3.6931 0.709531
382 1   	-0.00139042 4.34707 2.47317 0.539583
383 1   	0.00130046 5.78439 2.48401 0.480337
384 1   	-2.53459e-05 6.50182 3.72729 0.613922
385 1   	-0.000504334 3.55578 6.18929 0.798215
386 1   	-0.000170254 4.30106 4.92991 0.78619
387 1   	7.71416e-06 5.7316 4.93852 0.781023
388 1   	-0.000289691 6.47259 6.16641 0.996378
389 1   	0.00019881 3.51544 8.66569 0.887125
390 1   	-0.000207186 4.26337 7.43447 0.831966
391 1   	-0.000160679 5.70729 7.40484 0.930081
392 1   	0.00019053 6.42952 8.64427 1.08255
393 1   	1.07075e-05 3.52883 11.1362 0.979715
394 1   	7.14858e-05 4.26602 9.90051 1.00305
395 1   	5.10206e-05 5.70499 9.88182 1.10389
396 1   	-1.94359e-05 6.37811 11.1559 1.30628
397 1   	-1.18002e-05 3.52553 13.6325 1.08461
398 1   	-2.00283e-05 4.25679 12.364 1.06172
399 1   	-1.55644e-05 5.6782 12.4006 1.26784
400 1   	-9.94971e-06 6.43427 13.6469 1.3393
401 1   	7.83423e-06 3.56041 16.1409 1.2778
402 1   	-3.97955e-07 4.26779 14.8681 1.26365
403 1   	4.63558e-06 5.69313 14.8821 1.44062
404 1   	7.13577e-06 6.43102 16.1382 1.48802
405 1   	-9.1589e-07 3.58527 18.6184 1.45084
406 1   	3.82547e-06 4.28719 17.358 1.49697
407 1   	1.28687e-06 5.74145 17.3897 1.5366
408 1   	-1.08413e-06 6.43629 18.6544 1.63787
409 1   	5.53446e-07 3.57154 21.1129 1.31602
410 1   	-6.77623e-07 4.30411 19.8918 1.49283
411 1   	-4.41293e-08 5.74739 19.9418 1.51162
412 1   	7.08877e-07 6.4893 21.1226 1.22468
413 1   	9.89471e-07 3.55418 23.6152 1.23322
414 1   	1.02826e-06 4.29971 22.3552 1.28068
415 1   	1.07794e-06 5.72903 22.3716 1.12924
416 1   	9.20537e-07 6.454 23.5992 1.23412
417 1   	6.13716e-07 3.54353 26.1139 1.34183
418 1   	7.07059e-07 4.29324 24.8506 1.32014
419 1   	6.98478e-07 5.71084 24.8793 1.28588
420 1   	6.12798e-07 6.40873 26.1278 1.47232
421 1   	7.32673e-07 3.52284 28.62 1.50842
422 1   	6.84004e-07 4.24623 27.3718 1.38936
423 1   	7.06867e-07 5.69486 27.3716 1.47249
424 1   	7.38571e-07 6.43549 28.6132 1.64876
425 1   	7.34645e-07 3.61418 31.1196 1.90861
426 1   	7.45359e-07 4.26208 29.8501 1.73287
427 1   	7.37836e-07 5.72946 29.8508 1.72019
428 1   	7.30237e-07 6.49602 31.0693 1.82993
429 1   	7.27349e-07 3.56159 33.5558 2.01241
430 1   	6.97904e-07 4.33948 32.3539 2.00387
431 1   	7.16251e-07 5.77774 32.3427 1.98406
432 1   	7.1605e-07 6.47533 33.5798 2.13944
433 1   	7.56478e-07 3.59449 36.0802 2.08237
434 1   	6.9207e-07 4.27139 34.8285 2.09312
435 1   	7.11971e-07 5.70283 34.7954 2.21112
436 1   	7.21414e-07 6.44005 36.0532 2.20436
437 1   	7.33272e-07 3.56214 38.5364 2.42401
438 1   	7.08424e-07 4.31576 37.315 2.2395
439 1   	7.23329e-07 5.74491 37.3055 2.31363
440 1   	7.09708e-07 6.4555 38.5759 2.54044
441 1   	7.32983e-07 3.57626 41.0411 2.73586
442 1   	7.05997e-07 4.28445 39.7825 2.58524
443 1   	7.34974e-07 5.71707 39.8152 2.57195
444 1   	7.14696e-07 6.44761 41.0233 2.83761
445 1   	7.26472e-07 3.50448 43.4955 3.19049
446 1   	7.34635e-07 4.25531 42.2852 2.92681
447 1   	7.22677e-07 5.71121 42.2696 3.01008
448 1   	6.92602e-07 6.41168 43.4843 3.30562
449 1   	7.11484e-07 3.521 45.9238 3.84384
450 1   	7.34482e-07 4.22854 44.7319 3.46842
451 1   	7.11787e-07 5.67918 44.7123 3.526
452 1   	7.31527e-07 6.39806 45.9066 3.80976
453 1   	7.15153e-07 3.54163 48.3853 4.34047
454 1   	7.1584e-07 4.25319 47.1566 4.12157
455 1   	6.83872e-07 5.67285 47.1032 4.16534
456 1   	7.79249e-07 6.37662 48.3133 4.57957
457 1   	7.14294e-07 3.55987 50.9037 4.63252
458 1   	7.21823e-07 4.26718 49.6083 4.58283
459 1   	7.06499e-07 5.67826 49.5855 4.673
460 1   	7.17355e-07 6.4294 50.831 4.70963
461 1   	7.26147e-07 3.51783 53.3279 4.85487
462 1   	7.13876e-07 4.2805 52.1088 4.75247
463 1   	7.25244e-07 5.75091 52.1094 4.7757
464 1   	7.19831e-07 6.448 53.329 4.94587
465 1   	7.1788e-07 3.54188 55.8171 5.0455
466 1   	7.23974e-07 4.28672 54.5796 4.96156
467 1   	7.13271e-07 5.70186 54.5828 5.03045
468 1   	7.20745e-07 6.45584 55.8003 5.22577
469 1   	7.27593e-07 3.56102 58.3112 5.19208
470 1   	7.1991e-07 4.26929 57.0465 5.10568
471 1   	7.17858e-07 5.70779 57.0332 5.26024
472 1   	7.34727e-07 6.42678 58.2936 5.35392
473 1   	7.2528e-07 3.53456 60.7988 5.49545
474 1   	7.1376e-07 4.26622 59.5481 5.39593
475 1   	7.23625e-07 5.70629 59.5566 5.36982
476 1   	7.1109e-07 6.41625 60.828 5.43579
477 1   	7.24679e-07 3.49512 63.3235 5.52154
478 1   	7.06869e-07 4.22737 62.0701 5.5415
479 1   	7.37054e-07 5.65005 62.0543 5.61118
480 1   	7.22991e-07 6.3994 63.2753 5.58208
481 1   	7.25764e-07 3.55688 65.8355 5.47307
482 1   	7.19264e-07 4.23718 64.5653 5.45522
483 1   	6.99947e-07 5.68558 64.5177 5.43166
484 1   	7.34685e-07 6.38642 65.7598 5.34622
485 1   	7.62675e-07 3.52815 68.3068 5.25884
486 1   	6.97018e-07 4.29518 67.0733 5.42141
487 1   	7.26468e-07 5.72045 67.0517 5.49456
488 1   	7.15188e-07 6.44881 68.3101 5.46534
489 1   	7.43027e-07 3.55159 70.7922 5.27281
490 1   	6.85251e-07 4.25289 69.5549 5.37116
491 1   	7.29033e-07 5.70358 69.5493 5.435
492 1   	7.13203e-07 6.45245 70.7795 5.44675
493 1   	7.08486e-07 3.51887 73.2641 5.45491
494 1   	7.17507e-07 4.27671 72.049 5.35796
495 1   	7.15842e-07 5.71781 72.011 5.47705
496 1   	7.12901e-07 6.49956 73.2241 5.42723
497 1   	7.06e-07 3.57421 75.7169 5.46995
498 1   	7.25096e-07 4.29326 74.4821 5.54543
499 1   	7.3163e-07 5.74749 74.4574 5.51672
500 1   	7.04032e-07 6.42236 75.7341 5.43287
501 1   	7.08072e-07 3.57541 78.2208 5.4636
502 1   	7.3947e-07 4.29262 76.9765 5.56314
503 1   	7.24475e-07 5.7354 76.9838 5.50649
504 1   	7.01684e-07 6.50651 78.1912 5.35162
505 1   	7.15076e-07 3.6372 80.6925 5.23569
506 1   	7.23759e-07 4.33413 79.4491 5.3527
507 1   	7.19023e-07 5.79097 79.4362 5.31642
508 1   	7.22567e-07 6.45647 80.6943 5.13195
509 1   	7.22902e-07 3.61616 83.221 4.98504
510 1   	7.23314e-07 4.3161 81.9656 5.1287
511 1   	7.12384e-07 5.76678 81.9526 5.09982
512 1   	7.26038e-07 6.5111 83.1867 5.15134
513 1   	7.13744e-07 3.66667 85.7097 4.92397
514 1   	7.21338e-07 4.3584 84.4501 4.94157
515 1   	6.97704e-07 5.81032 84.458 5.04609
516 1   	7.51392e-07 6.53416 85.6809 5.10219
517 1   	7.26299e-07 3.67159 88.22 4.75133
518 1   	7.08485e-07 4.3785 86.9734 4.79411
519 1   	7.20147e-07 5.80591 86.9464 4.94755
520 1   	6.99839e-07 6.51724 88.1783 4.78698
521 1   	7.22006e-07 3.64881 90.7162 4.527
522 1   	7.03418e-07 4.38272 89.4773 4.64863
523 1   	7.42165e-07 5.82428 89.4578 4.79194
524 1   	7.11381e-07 6.48944 90.6952 4.63481
525 1   	6.97036e-07 3.62343 93.194 4.17661
526 1   	7.22587e-07 4.34487 91.9678 4.44797
527 1   	7.39674e-07 5.78826 91.9683 4.48667
528 1   	7.13566e-07 6.5052 93.1953 4.24578
529 1   	7.04963e-07 3.7098 95.6499 3.64477
530 1   	7.43336e-07 4.3725 94.4163 4.04158
531 1   	7.31061e-07 5.812 94.4379 4.04307
532 1   	7.13769e-07 6.5661 95.6382 3.68468
533 1   	7.24803e-07 3.69101 98.1089 3.01012
534 1   	7.34281e-07 4.39488 96.8651 3.31481
535 1   	7.13037e-07 5.86085 96.8555 3.3833
536 1   	7.3392e-07 6.5149 98.1292 3.23473
537 1   	7.25051e-07 3.66749 100.617 2.56235
538 1   	7.24833e-07 4.36304 99.3605 2.76946
539 1   	7.0848e-07 5.7971 99.3386 2.83979
540 1   	7.29056e-07 6.53426 100.554 2.66831
541 1   	7.08411e-07 3.57764 103.022 2.06703
542 1   	7.13531e-07 4.36002 101.865 2.39485
543 1   	7.25953e-07 5.803 101.803 2.40152
544 1   	7.10241e-07 6.55988 102.997 2.16219
545 1   	7.06772e-07 3.69816 105.469 1.7064
546 1   	7.29204e-07 4.37782 104.214 1.831
547 1   	7.30421e-07 5.82786 104.203 1.87892
548 1   	7.06483e-07 6.5499 105.459 1.82833
549 1   	7.18443e-07 3.66251 107.918 1.34969
550 1   	7.27936e-07 4.41454 106.71 1.6229
551 1   	7.18127e-07 5.85205 106.693 1.50654
552 1   	7.09548e-07 6.56181 107.922 1.2875
553 1   	7.07597e-07 3.64042 110.381 0.939506
554 1   	7.2066e-07 4.3618 109.17 1.08148
555 1   	7.20363e-07 5.81757 109.14 1.06288
556 1   	7.10854e-07 6.50759 110.371 0.854163
557 1   	7.18897e-07 3.69034 112.878 0.541746
558 1   	7.3908e-07 4.38557 111.63 0.813141
559 1   	7.15582e-07 5.81395 111.657 0.759798
560 1   	7.18364e-07 6.55326 112.835 0.46512
561 1   	7.09232e-07 3.63036 115.289 -0.027092
562 1   	7.09497e-07 4.40491 114.079 0.251026
563 1   	7.27438e-07 5.83384 114.087 0.241367
564 1   	7.1433e-07 6.51198 115.304 -0.172234
565 1   	7.34379e-07 3.62391 117.769 -0.60576
566 1   	7.30603e-07 4.3131 116.504 -0.423074
567 1   	7.31014e-07 5.74155 116.521 -0.424957
568 1   	6.90299e-07 6.50905 117.763 -0.575226
569 1   	7.2983e-07 3.57571 -115.53 -0.767098
570 1   	7.04299e-07 4.3569 -116.791 -0.683249
571 1   	7.2067e-07 5.78362 -116.803 -0.754318
572 1   	7.32115e-07 6.48681 -115.515 -0.80606
573 1   	7.20581e-07 3.57366 -113.069 -0.930494
574 1   	7.13824e-07 4.28569 -114.294 -0.916009
575 1   	7.19886e-07 5.75486 -114.298 -0.94543
576 1   	7.17769e-07 6.43713 -113.043 -1.12046
577 1   	7.12444e-07 3.59985 -110.553 -1.07242
578 1   	7.18563e-07 4.27782 -111.829 -1.07585
579 1   	7.21708e-07 5.73076 -111.804 -1.17684
580 1   	7.08254e-07 6.48926 -110.57 -1.22407
581 1   	7.06199e-07 3.58272 -108.094 -1.27096
582 1   	7.46074e-07 4.34317 -109.294 -1.12838
583 1   	7.27469e-07 5.80024 -109.316 -1.2234
584 1   	7.11244e-07 6.48317 -108.104 -1.57143
585 1   	7.16626e-07 3.65838 -105.616 -1.62318
586 1   	7.17701e-07 4.3332 -106.873 -1.48459
587 1   	7.16071e-07 5.77432 -106.856 -1.62143
588 1   	7.1904e-07 6.49257 -105.614 -1.79577
589 1   	7.35736e-07 3.58784 -103.132 -1.76992
590 1   	7.08147e-07 4.34601 -104.364 -1.78336
591 1   	6.96239e-07 5.78485 -104.352 -1.79216
592 1   	7.41982e-07 6.4964 -103.121 -1.81534
593 1   	7.23752e-07 3.58598 -100.656 -2.10308
594 1   	7.06825e-07 4.31499 -101.892 -1.95127
595 1   	7.09403e-07 5.74821 -101.889 -1.94465
596 1   	7.14303e-07 6.44717 -100.625 -2.05675
597 1   	7.09906e-07 3.58098 -98.1263 -2.27021
598 1   	7.02825e-07 4.28193 -99.4052 -2.15483
599 1   	7.39875e-07 5.69981 -99.3736 -2.10409
600 1   	7.07333e-07 6.44094 -98.1253 -2.277
601 1   	7.32379e-07 3.59329 -95.6305 -2.58254
602 1   	7.28171e-07 4.28404 -96.8658 -2.34582
603 1   	7.37275e-07 5.72139 -96.8804 -2.35971
604 1   	7.02248e-07 6.46063 -95.6596 -2.674
605 1   	7.19233e-07 3.58612 -93.2088 -3.17427
606 1   	7.09723e-07 4.33665 -94.4326 -2.94481
607 1   	7.17974e-07 5.76607 -94.4276 -2.86966
608 1   	7.25989e-07 6.51104 -93.1692 -3.00459
609 1   	7.56495e-07 3.57696 -90.775 -3.65598
610 1   	7.19684e-07 4.31712 -91.9992 -3.39673
611 1   	7.09299e-07 5.7613 -91.97 -3.24987
612 1   	7.21567e-07 6.45357 -90.7185 -3.36771
613 1   	7.03672e-07 3.5606 -88.2522 -3.7945
614 1   	7.08014e-07 4.27169 -89.5069 -3.6919
615 1   	7.18555e-07 5.70937 -89.5109 -3.62843
616 1   	7.28658e-07 6.47047 -88.2836 -3.80765
617 1   	7.20338e-07 3.62011 -85.7838 -3.91583
618 1   	7.15273e-07 4.31697 -87.041 -3.84665
619 1   	7.22555e-07 5.77827 -87.0439 -3.93306
620 1   	7.29228e-07 6.49148 -85.7899 -4.01431
621 1   	7.10652e-07 3.6349 -83.2837 -4.05398
622 1   	7.24086e-07 4.34851 -84.5213 -4.06103
623 1   	7.1095e-07 5.77646 -84.4897 -4.09045
624 1   	7.46522e-07 6.47608 -83.2498 -4.19493
625 1   	7.22353e-07 3.62865 -80.7646 -3.96282
626 1   	7.14483e-07 4.29927 -82.0292 -3.98736
627 1   	6.98011e-07 5.77484 -81.9969 -4.08983
628 1   	7.4173e-07 6.48634 -80.769 -4.16815
629 1   	7.25253e-07 3.65698 -78.2511 -3.83675
630 1   	7.192e-07 4.33478 -79.4983 -3.95103
631 1   	7.08049e-07 5.77496 -79.5114 -3.99538
632 1   	7.18883e-07 6.50217 -78.2711 -4.01321
633 1   	6.92846e-07 3.6617 -75.7848 -3.56862
634 1   	7.25058e-07 4.39481 -77.0057 -3.75394
635 1   	7.18135e-07 5.84208 -76.9907 -3.8823
636 1   	7.14603e-07 6.52899 -75.7354 -3.84038
637 1   	7.08067e-07 3.64938 -73.3039 -3.32232
638 1   	7.20369e-07 4.37029 -74.5556 -3.47744
639 1   	6.97581e-07 5.81424 -74.4842 -3.63488
640 1   	7.46687e-07 6.56244 -73.2751 -3.56342
641 1   	7.23644e-07 3.63692 -70.8219 -3.44665
642 1   	7.23434e-07 4.37452 -72.0719 -3.38021
643 1   	7.43272e-07 5.81275 -72.0291 -3.49465
644 1   	6.68393e-07 6.50126 -70.8211 -3.82924
645 1   	7.06924e-07 3.59035 -68.334 -3.70556
646 1   	7.31252e-07 4.32156 -69.5546 -3.58548